<?xml version="1.0" encoding="UTF-8"?>

<!-- generated on 2023-02-21 19:03:36 by Eclipse SUMO GUI Version 1.16.0
<configuration xmlns:xsi="http://www.w3.org/2001/XMLSchema-instance" xsi:noNamespaceSchemaLocation="http://sumo.dlr.de/xsd/sumoConfiguration.xsd">

    <input>
        <net-file value="osm.net.xml"/>
        <route-files value="osm.passenger.trips.xml"/>
        <additional-files value="osm.poly.xml"/>
    </input>

    <output>
        <netstate-dump value="netstate_outfile.xml"/>
        <fcd-output value="fcd_outfile.xml"/>
        <queue-output value="queue_outfile_outfile.xml"/>
        <vehroute-output value="vehicleroute_outfile.xml"/>
        <lanechange-output value="lanechange_outfile.xml"/>
        <statistic-output value="stats_outfile_outfile.xml"/>
    </output>

    <processing>
        <ignore-route-errors value="true"/>
    </processing>

    <routing>
        <device.rerouting.adaptation-steps value="18"/>
        <device.rerouting.adaptation-interval value="10"/>
    </routing>

    <report>
        <verbose value="true"/>
        <duration-log.statistics value="true"/>
        <no-step-log value="true"/>
    </report>

    <traci_server>
        <remote-port value="62287"/>
    </traci_server>

    <gui_only>
        <gui-settings-file value="osm.view.xml"/>
    </gui_only>

</configuration>
-->

<fcd-export xmlns:xsi="http://www.w3.org/2001/XMLSchema-instance" xsi:noNamespaceSchemaLocation="http://sumo.dlr.de/xsd/fcd_file.xsd">
    <timestep time="0.00">
        <vehicle id="veh0" x="8283.50" y="5352.20" angle="193.99" type="veh_passenger" speed="0.00" pos="5.10" lane="637957161_2" slope="0.00"/>
    </timestep>
    <timestep time="1.00">
        <vehicle id="veh0" x="8282.97" y="5350.10" angle="193.99" type="veh_passenger" speed="2.18" pos="7.28" lane="637957161_2" slope="0.00"/>
        <vehicle id="veh1" x="3491.24" y="4261.02" angle="46.94" type="veh_passenger" speed="0.00" pos="5.10" lane="32877553-AddedOnRampEdge_1" slope="0.00"/>
        <vehicle id="veh2" x="12489.89" y="3630.92" angle="282.38" type="veh_passenger" speed="0.00" pos="5.10" lane="646226502_0" slope="0.00"/>
    </timestep>
    <timestep time="2.00">
        <vehicle id="veh0" x="8281.87" y="5345.66" angle="193.97" type="veh_passenger" speed="4.62" pos="0.32" lane=":6642371597_0_3" slope="0.00"/>
        <vehicle id="veh1" x="3492.89" y="4262.56" angle="46.94" type="veh_passenger" speed="2.25" pos="7.35" lane="32877553-AddedOnRampEdge_1" slope="0.00"/>
        <vehicle id="veh2" x="12475.22" y="3634.14" angle="282.38" type="veh_passenger" speed="15.00" pos="20.10" lane="646226502_0" slope="0.00"/>
    </timestep>
    <timestep time="3.00">
        <vehicle id="veh0" x="8280.46" y="5339.88" angle="193.69" type="veh_passenger" speed="6.16" pos="6.49" lane=":6642371597_0_3" slope="0.00"/>
        <vehicle id="veh1" x="3495.90" y="4265.37" angle="46.94" type="veh_passenger" speed="4.11" pos="11.46" lane="32877553-AddedOnRampEdge_1" slope="0.00"/>
        <vehicle id="veh2" x="12460.56" y="3637.36" angle="282.38" type="veh_passenger" speed="15.00" pos="4.63" lane=":cluster_5166597569_8347561860_1_0" slope="0.00"/>
    </timestep>
    <timestep time="4.00">
        <vehicle id="veh0" x="8278.70" y="5332.58" angle="193.52" type="veh_passenger" speed="7.57" pos="5.74" lane="706845933_3" slope="0.00"/>
        <vehicle id="veh1" x="3500.34" y="4269.52" angle="46.94" type="veh_passenger" speed="6.06" pos="17.52" lane="32877553-AddedOnRampEdge_1" slope="0.00"/>
        <vehicle id="veh2" x="12446.25" y="3640.50" angle="282.37" type="veh_passenger" speed="15.00" pos="10.20" lane="646226504_0" slope="0.00"/>
    </timestep>
    <timestep time="5.00">
        <vehicle id="veh0" x="8276.37" y="5322.88" angle="193.52" type="veh_passenger" speed="9.98" pos="15.72" lane="706845933_3" slope="0.00"/>
        <vehicle id="veh1" x="3506.67" y="4275.44" angle="46.94" type="veh_passenger" speed="8.65" pos="26.17" lane="32877553-AddedOnRampEdge_1" slope="0.00"/>
        <vehicle id="veh2" x="12432.10" y="3643.60" angle="282.37" type="veh_passenger" speed="15.00" pos="25.20" lane="646226504_0" slope="0.00"/>
    </timestep>
    <timestep time="6.00">
        <vehicle id="veh0" x="8274.43" y="5315.86" angle="196.28" type="veh_passenger" speed="7.28" pos="2.08" lane=":cluster_246141084_4386856096_4386856099_4386856102_4386856105_4386856106_4386856108_4386856110_4386856117_6642371596_7384819988_8407243205_8407243206_12_0" slope="0.00"/>
        <vehicle id="veh1" x="3514.51" y="4282.00" angle="50.83" type="veh_passenger" speed="10.20" pos="36.37" lane="32877553-AddedOnRampEdge_1" slope="0.00"/>
        <vehicle id="veh2" x="12417.87" y="3644.02" angle="260.86" type="veh_passenger" speed="15.00" pos="40.20" lane="646226504_0" slope="0.00"/>
    </timestep>
    <timestep time="7.00">
        <vehicle id="veh0" x="8270.17" y="5311.25" angle="228.43" type="veh_passenger" speed="6.49" pos="8.57" lane=":cluster_246141084_4386856096_4386856099_4386856102_4386856105_4386856106_4386856108_4386856110_4386856117_6642371596_7384819988_8407243205_8407243206_12_0" slope="0.00"/>
        <vehicle id="veh1" x="3523.52" y="4289.34" angle="50.83" type="veh_passenger" speed="11.60" pos="47.97" lane="32877553-AddedOnRampEdge_1" slope="0.00"/>
        <vehicle id="veh2" x="12407.19" y="3635.09" angle="211.94" type="veh_passenger" speed="15.00" pos="55.20" lane="646226504_0" slope="0.00"/>
    </timestep>
    <timestep time="8.00">
        <vehicle id="veh0" x="8265.60" y="5312.46" angle="288.46" type="veh_passenger" speed="5.61" pos="2.48" lane=":6642371592_0_1" slope="0.00"/>
        <vehicle id="veh1" x="3533.63" y="4297.57" angle="50.83" type="veh_passenger" speed="13.00" pos="60.97" lane="32877553-AddedOnRampEdge_1" slope="0.00"/>
        <vehicle id="veh2" x="12403.22" y="3621.30" angle="191.38" type="veh_passenger" speed="15.00" pos="70.20" lane="646226504_0" slope="0.00"/>
    </timestep>
    <timestep time="9.00">
        <vehicle id="veh0" x="8266.21" y="5317.19" angle="6.99" type="veh_passenger" speed="4.79" pos="0.57" lane="74939755#2_2" slope="0.00"/>
        <vehicle id="veh1" x="3545.38" y="4307.14" angle="50.83" type="veh_passenger" speed="15.13" pos="76.10" lane="32877553-AddedOnRampEdge_1" slope="0.00"/>
        <vehicle id="veh2" x="12397.43" y="3608.58" angle="196.47" type="veh_passenger" speed="15.00" pos="3.47" lane="646794847_0" slope="0.00"/>
    </timestep>
    <timestep time="10.00">
        <vehicle id="veh0" x="8267.80" y="5323.69" angle="13.82" type="veh_passenger" speed="6.67" pos="7.24" lane="74939755#2_2" slope="0.00"/>
        <vehicle id="veh1" x="3558.81" y="4318.08" angle="50.83" type="veh_passenger" speed="17.28" pos="93.38" lane="32877553-AddedOnRampEdge_1" slope="0.00"/>
        <vehicle id="veh2" x="12394.46" y="3593.88" angle="191.65" type="veh_passenger" speed="15.00" pos="7.18" lane=":cluster_5241592830_8424238415_0_0" slope="0.00"/>
    </timestep>
    <timestep time="11.00">
        <vehicle id="veh0" x="8269.87" y="5332.08" angle="13.82" type="veh_passenger" speed="8.61" pos="15.85" lane="74939755#2_2" slope="0.00"/>
        <vehicle id="veh1" x="3573.50" y="4330.06" angle="50.84" type="veh_passenger" speed="18.92" pos="8.19" lane="32877553_0" slope="0.00"/>
        <vehicle id="veh2" x="12391.33" y="3579.21" angle="192.14" type="veh_passenger" speed="15.00" pos="12.47" lane="641308557_0" slope="0.00"/>
    </timestep>
    <timestep time="12.00">
        <vehicle id="veh0" x="8272.51" y="5342.84" angle="13.82" type="veh_passenger" speed="11.04" pos="26.89" lane="74939755#2_2" slope="0.00"/>
        <vehicle id="veh1" x="3590.58" y="4340.25" angle="61.01" type="veh_passenger" speed="19.88" pos="28.06" lane="32877553_0" slope="0.00"/>
        <vehicle id="veh2" x="12388.28" y="3564.76" angle="191.47" type="veh_passenger" speed="15.00" pos="4.88" lane=":5973631229_0_1" slope="0.00"/>
    </timestep>
    <timestep time="13.00">
        <vehicle id="veh0" x="8275.59" y="5355.33" angle="13.82" type="veh_passenger" speed="12.83" pos="39.72" lane="74939755#2_2" slope="0.00"/>
        <vehicle id="veh1" x="3608.03" y="4349.91" angle="61.01" type="veh_passenger" speed="19.89" pos="47.95" lane="32877553_0" slope="0.00"/>
        <vehicle id="veh2" x="12385.46" y="3550.19" angle="190.78" type="veh_passenger" speed="15.00" pos="11.58" lane="664961871#0_1" slope="0.00"/>
    </timestep>
    <timestep time="14.00">
        <vehicle id="veh0" x="8279.09" y="5369.60" angle="13.82" type="veh_passenger" speed="14.64" pos="54.36" lane="74939755#2_2" slope="0.00"/>
        <vehicle id="veh1" x="3625.56" y="4359.62" angle="61.01" type="veh_passenger" speed="19.98" pos="67.93" lane="32877553_0" slope="0.00"/>
        <vehicle id="veh2" x="12382.17" y="3535.58" angle="196.51" type="veh_passenger" speed="15.00" pos="4.23" lane=":cluster_246580175_4726320180_8424581520_5_0" slope="0.00"/>
    </timestep>
    <timestep time="15.00">
        <vehicle id="veh0" x="8282.85" y="5385.75" angle="11.41" type="veh_passenger" speed="16.54" pos="70.90" lane="74939755#2_2" slope="0.00"/>
        <vehicle id="veh1" x="3643.13" y="4369.36" angle="61.01" type="veh_passenger" speed="20.02" pos="87.95" lane="32877553_0" slope="0.00"/>
        <vehicle id="veh2" x="12371.22" y="3527.51" angle="261.31" type="veh_passenger" speed="15.00" pos="19.23" lane=":cluster_246580175_4726320180_8424581520_5_0" slope="0.00"/>
    </timestep>
    <timestep time="16.00">
        <vehicle id="veh0" x="8286.09" y="5404.56" angle="6.29" type="veh_passenger" speed="19.04" pos="89.93" lane="74939755#2_2" slope="0.00"/>
        <vehicle id="veh1" x="3660.87" y="4379.19" angle="61.01" type="veh_passenger" speed="20.23" pos="108.18" lane="32877553_0" slope="0.00"/>
        <vehicle id="veh2" x="12356.60" y="3530.39" angle="282.92" type="veh_passenger" speed="15.00" pos="12.36" lane="747390011_1" slope="0.00"/>
    </timestep>
    <timestep time="17.00">
        <vehicle id="veh0" x="8288.22" y="5423.82" angle="6.29" type="veh_passenger" speed="19.32" pos="109.25" lane="74939755#2_2" slope="0.00"/>
        <vehicle id="veh1" x="3678.75" y="4388.82" angle="61.79" type="veh_passenger" speed="20.24" pos="128.42" lane="32877553_0" slope="0.00"/>
        <vehicle id="veh2" x="12342.31" y="3534.45" angle="291.78" type="veh_passenger" speed="15.00" pos="27.36" lane="747390011_1" slope="0.00"/>
    </timestep>
    <timestep time="18.00">
        <vehicle id="veh0" x="8290.43" y="5443.90" angle="6.29" type="veh_passenger" speed="20.13" pos="129.38" lane="74939755#2_2" slope="0.00"/>
        <vehicle id="veh1" x="3696.42" y="4398.30" angle="61.79" type="veh_passenger" speed="20.00" pos="148.41" lane="32877553_0" slope="0.00"/>
        <vehicle id="veh2" x="12328.82" y="3540.80" angle="295.21" type="veh_passenger" speed="15.00" pos="42.36" lane="747390011_1" slope="0.00"/>
    </timestep>
    <timestep time="19.00">
        <vehicle id="veh0" x="8291.66" y="5463.81" angle="1.51" type="veh_passenger" speed="19.80" pos="10.26" lane="74939755#3_2" slope="0.00"/>
        <vehicle id="veh1" x="3713.72" y="4407.58" angle="61.79" type="veh_passenger" speed="19.57" pos="167.99" lane="32877553_0" slope="0.00"/>
        <vehicle id="veh2" x="12315.32" y="3547.15" angle="295.22" type="veh_passenger" speed="15.00" pos="57.36" lane="747390011_1" slope="0.00"/>
    </timestep>
    <timestep time="20.00">
        <vehicle id="veh0" x="8292.07" y="5484.05" angle="0.07" type="veh_passenger" speed="19.99" pos="2.83" lane=":5220729271_1_2" slope="0.00"/>
        <vehicle id="veh1" x="3731.93" y="4417.34" angle="61.79" type="veh_passenger" speed="20.59" pos="188.58" lane="32877553_0" slope="0.00"/>
        <vehicle id="veh2" x="12301.83" y="3553.51" angle="295.22" type="veh_passenger" speed="15.00" pos="72.36" lane="747390011_1" slope="0.00"/>
    </timestep>
    <timestep time="21.00">
        <vehicle id="veh0" x="8291.73" y="5503.83" angle="359.01" type="veh_passenger" speed="19.76" pos="12.22" lane="146658738#1_2" slope="0.00"/>
        <vehicle id="veh1" x="3750.20" y="4427.15" angle="61.79" type="veh_passenger" speed="20.68" pos="209.26" lane="32877553_0" slope="0.00"/>
        <vehicle id="veh2" x="12288.33" y="3559.86" angle="295.22" type="veh_passenger" speed="15.00" pos="87.36" lane="747390011_1" slope="0.00"/>
    </timestep>
    <timestep time="22.00">
        <vehicle id="veh0" x="8291.37" y="5524.30" angle="359.01" type="veh_passenger" speed="20.44" pos="32.66" lane="146658738#1_2" slope="0.00"/>
        <vehicle id="veh1" x="3767.52" y="4436.44" angle="61.79" type="veh_passenger" speed="19.60" pos="228.86" lane="32877553_0" slope="0.00"/>
        <vehicle id="veh2" x="12275.90" y="3567.96" angle="309.91" type="veh_passenger" speed="15.00" pos="11.14" lane=":cluster_246580179_246580195_4323498694_4726320174_4726320175_4726320176_8424183219_8424183220_8424183225_8424183226_1_1" slope="0.00"/>
    </timestep>
    <timestep time="23.00">
        <vehicle id="veh0" x="8291.03" y="5544.47" angle="359.01" type="veh_passenger" speed="20.13" pos="52.79" lane="146658738#1_2" slope="0.00"/>
        <vehicle id="veh1" x="3785.43" y="4446.04" angle="61.79" type="veh_passenger" speed="20.26" pos="249.12" lane="32877553_0" slope="0.00"/>
        <vehicle id="veh2" x="12270.97" y="3581.52" angle="355.10" type="veh_passenger" speed="15.00" pos="26.14" lane=":cluster_246580179_246580195_4323498694_4726320174_4726320175_4726320176_8424183219_8424183220_8424183225_8424183226_1_1" slope="0.00"/>
    </timestep>
    <timestep time="24.00">
        <vehicle id="veh0" x="8289.68" y="5564.26" angle="355.56" type="veh_passenger" speed="19.80" pos="72.59" lane="146658738#1_2" slope="0.00"/>
        <vehicle id="veh1" x="3803.45" y="4455.71" angle="61.79" type="veh_passenger" speed="20.39" pos="269.50" lane="32877553_0" slope="0.00"/>
        <vehicle id="veh2" x="12271.62" y="3597.01" angle="18.16" type="veh_passenger" speed="15.00" pos="8.38" lane="74860023#1_1" slope="0.00"/>
    </timestep>
    <timestep time="25.00">
        <vehicle id="veh0" x="8288.09" y="5584.80" angle="355.56" type="veh_passenger" speed="20.56" pos="93.15" lane="146658738#1_2" slope="0.00"/>
        <vehicle id="veh1" x="3821.18" y="4465.21" angle="61.79" type="veh_passenger" speed="20.05" pos="289.55" lane="32877553_0" slope="0.00"/>
        <vehicle id="veh2" x="12273.21" y="3612.09" angle="18.17" type="veh_passenger" speed="15.00" pos="23.38" lane="74860023#1_0" slope="0.00"/>
    </timestep>
    <timestep time="26.00">
        <vehicle id="veh0" x="8285.83" y="5604.10" angle="351.49" type="veh_passenger" speed="19.92" pos="6.60" lane="639551506_3" slope="0.00"/>
        <vehicle id="veh1" x="3838.42" y="4474.48" angle="61.67" type="veh_passenger" speed="19.71" pos="7.95" lane=":6096026683_0_1" slope="0.00"/>
        <vehicle id="veh2" x="12277.14" y="3626.43" angle="11.68" type="veh_passenger" speed="15.00" pos="38.38" lane="74860023#1_0" slope="0.00"/>
    </timestep>
    <timestep time="27.00">
        <vehicle id="veh0" x="8283.34" y="5624.74" angle="347.28" type="veh_passenger" speed="20.48" pos="4.28" lane="639551505_3" slope="0.00"/>
        <vehicle id="veh1" x="3856.32" y="4484.15" angle="61.62" type="veh_passenger" speed="20.35" pos="20.14" lane="649605845_1" slope="0.00"/>
        <vehicle id="veh2" x="12280.15" y="3641.02" angle="11.68" type="veh_passenger" speed="15.00" pos="53.38" lane="74860023#1_0" slope="0.00"/>
    </timestep>
    <timestep time="28.00">
        <vehicle id="veh0" x="8280.18" y="5644.87" angle="347.41" type="veh_passenger" speed="20.53" pos="4.31" lane="482087300_4" slope="0.00"/>
        <vehicle id="veh1" x="3873.63" y="4493.50" angle="61.62" type="veh_passenger" speed="19.68" pos="39.82" lane="649605845_1" slope="0.00"/>
        <vehicle id="veh2" x="12283.17" y="3655.60" angle="11.68" type="veh_passenger" speed="15.00" pos="68.38" lane="74860023#1_0" slope="0.00"/>
    </timestep>
    <timestep time="29.00">
        <vehicle id="veh0" x="8277.24" y="5663.95" angle="358.61" type="veh_passenger" speed="19.38" pos="0.06" lane="649370259_5" slope="0.00"/>
        <vehicle id="veh1" x="3891.97" y="4503.41" angle="61.62" type="veh_passenger" speed="20.85" pos="60.67" lane="649605845_1" slope="0.00"/>
        <vehicle id="veh2" x="12284.76" y="3670.39" angle="4.94" type="veh_passenger" speed="15.00" pos="83.38" lane="74860023#1_0" slope="0.00"/>
    </timestep>
    <timestep time="30.00">
        <vehicle id="veh0" x="8272.24" y="5678.86" angle="331.54" type="veh_passenger" speed="15.73" pos="4.22" lane=":4745340919_1_4" slope="0.00"/>
        <vehicle id="veh1" x="3909.94" y="4513.12" angle="61.62" type="veh_passenger" speed="20.42" pos="81.09" lane="649605845_1" slope="0.00"/>
        <vehicle id="veh2" x="12286.04" y="3685.23" angle="4.94" type="veh_passenger" speed="15.00" pos="98.38" lane="74860023#1_0" slope="0.00"/>
    </timestep>
    <timestep time="31.00">
        <vehicle id="veh0" x="8267.84" y="5689.99" angle="343.03" type="veh_passenger" speed="11.86" pos="8.19" lane="251582019_4" slope="0.00"/>
        <vehicle id="veh1" x="3928.13" y="4522.95" angle="61.62" type="veh_passenger" speed="20.68" pos="101.76" lane="649605845_1" slope="0.00"/>
        <vehicle id="veh2" x="12283.77" y="3699.51" angle="359.97" type="veh_passenger" speed="15.00" pos="3.80" lane="632442406_0" slope="0.00"/>
    </timestep>
    <timestep time="32.00">
        <vehicle id="veh0" x="8265.35" y="5698.17" angle="343.03" type="veh_passenger" speed="8.50" pos="16.69" lane="251582019_4" slope="0.00"/>
        <vehicle id="veh1" x="3945.98" y="4532.59" angle="61.62" type="veh_passenger" speed="20.28" pos="122.05" lane="649605845_1" slope="0.00"/>
        <vehicle id="veh2" x="12284.24" y="3714.42" angle="0.20" type="veh_passenger" speed="15.00" pos="18.80" lane="632442406_0" slope="0.00"/>
    </timestep>
    <timestep time="33.00">
        <vehicle id="veh0" x="8264.11" y="5702.22" angle="343.03" type="veh_passenger" speed="4.21" pos="20.90" lane="251582019_4" slope="0.00"/>
        <vehicle id="veh1" x="3964.16" y="4542.41" angle="61.62" type="veh_passenger" speed="20.67" pos="142.72" lane="649605845_1" slope="0.00"/>
        <vehicle id="veh2" x="12284.29" y="3729.33" angle="0.20" type="veh_passenger" speed="15.00" pos="33.80" lane="632442406_0" slope="0.00"/>
    </timestep>
    <timestep time="34.00">
        <vehicle id="veh0" x="8263.98" y="5702.64" angle="343.03" type="veh_passenger" speed="0.45" pos="21.34" lane="251582019_4" slope="0.00"/>
        <vehicle id="veh1" x="3982.03" y="4551.15" angle="64.36" type="veh_passenger" speed="19.72" pos="15.11" lane="75435065_0" slope="0.00"/>
        <vehicle id="veh2" x="12284.35" y="3744.25" angle="0.20" type="veh_passenger" speed="15.00" pos="48.80" lane="632442406_0" slope="0.00"/>
    </timestep>
    <timestep time="35.00">
        <vehicle id="veh0" x="8263.95" y="5702.76" angle="343.03" type="veh_passenger" speed="0.12" pos="21.46" lane="251582019_4" slope="0.00"/>
        <vehicle id="veh1" x="3999.66" y="4559.61" angle="64.36" type="veh_passenger" speed="19.64" pos="34.76" lane="75435065_0" slope="0.00"/>
        <vehicle id="veh2" x="12284.40" y="3759.16" angle="0.20" type="veh_passenger" speed="15.00" pos="63.80" lane="632442406_0" slope="0.00"/>
    </timestep>
    <timestep time="36.00">
        <vehicle id="veh0" x="8263.94" y="5702.76" angle="343.03" type="veh_passenger" speed="0.00" pos="21.47" lane="251582019_4" slope="0.00"/>
        <vehicle id="veh1" x="4018.14" y="4568.48" angle="64.36" type="veh_passenger" speed="20.59" pos="55.35" lane="75435065_0" slope="0.00"/>
        <vehicle id="veh2" x="12277.15" y="3771.18" angle="308.66" type="veh_passenger" speed="15.00" pos="11.49" lane=":cluster_1346032501_246580193_2486135861_2486135862_4602603068_4602603070_7190793387_885881084_885881087_0_0" slope="0.00"/>
    </timestep>
    <timestep time="37.00">
        <vehicle id="veh0" x="8263.94" y="5702.77" angle="343.03" type="veh_passenger" speed="0.00" pos="21.47" lane="251582019_4" slope="0.00"/>
        <vehicle id="veh1" x="4037.62" y="4575.30" angle="72.59" type="veh_passenger" speed="20.77" pos="76.12" lane="75435065_0" slope="0.00"/>
        <vehicle id="veh2" x="12263.98" y="3778.29" angle="296.08" type="veh_passenger" speed="15.00" pos="26.49" lane=":cluster_1346032501_246580193_2486135861_2486135862_4602603068_4602603070_7190793387_885881084_885881087_0_0" slope="0.00"/>
    </timestep>
    <timestep time="38.00">
        <vehicle id="veh0" x="8263.94" y="5702.77" angle="343.03" type="veh_passenger" speed="0.00" pos="21.47" lane="251582019_4" slope="0.00"/>
        <vehicle id="veh1" x="4056.90" y="4581.35" angle="72.59" type="veh_passenger" speed="20.30" pos="96.42" lane="75435065_0" slope="0.00"/>
        <vehicle id="veh2" x="12251.29" y="3787.07" angle="324.64" type="veh_passenger" speed="15.00" pos="1.25" lane="539328454_1" slope="0.00"/>
    </timestep>
    <timestep time="39.00">
        <vehicle id="veh0" x="8263.94" y="5702.77" angle="343.03" type="veh_passenger" speed="0.00" pos="21.47" lane="251582019_4" slope="0.00"/>
        <vehicle id="veh1" x="4076.42" y="4587.48" angle="72.59" type="veh_passenger" speed="20.56" pos="116.98" lane="75435065_0" slope="0.00"/>
        <vehicle id="veh2" x="12238.46" y="3795.47" angle="291.14" type="veh_passenger" speed="15.00" pos="16.25" lane="539328454_2" slope="0.00"/>
    </timestep>
    <timestep time="40.00">
        <vehicle id="veh0" x="8263.94" y="5702.77" angle="343.03" type="veh_passenger" speed="0.00" pos="21.47" lane="251582019_4" slope="0.00"/>
        <vehicle id="veh1" x="4096.44" y="4592.39" angle="77.51" type="veh_passenger" speed="20.72" pos="137.70" lane="75435065_0" slope="0.00"/>
        <vehicle id="veh2" x="12224.47" y="3800.89" angle="291.18" type="veh_passenger" speed="15.00" pos="31.25" lane="539328454_2" slope="0.00"/>
    </timestep>
    <timestep time="41.00">
        <vehicle id="veh0" x="8263.94" y="5702.77" angle="343.03" type="veh_passenger" speed="0.00" pos="21.47" lane="251582019_4" slope="0.00"/>
        <vehicle id="veh1" x="4116.40" y="4596.81" angle="77.51" type="veh_passenger" speed="20.54" pos="158.24" lane="75435065_0" slope="0.00"/>
        <vehicle id="veh2" x="12210.48" y="3806.31" angle="291.20" type="veh_passenger" speed="15.00" pos="46.25" lane="539328454_2" slope="0.00"/>
    </timestep>
    <timestep time="42.00">
        <vehicle id="veh0" x="8263.94" y="5702.77" angle="343.03" type="veh_passenger" speed="0.00" pos="21.47" lane="251582019_4" slope="0.00"/>
        <vehicle id="veh1" x="4135.72" y="4601.09" angle="77.51" type="veh_passenger" speed="19.88" pos="178.12" lane="75435065_0" slope="0.00"/>
        <vehicle id="veh2" x="12196.49" y="3811.73" angle="291.07" type="veh_passenger" speed="15.00" pos="61.25" lane="539328454_2" slope="0.00"/>
    </timestep>
    <timestep time="43.00">
        <vehicle id="veh0" x="8263.94" y="5702.77" angle="343.03" type="veh_passenger" speed="0.00" pos="21.47" lane="251582019_4" slope="0.00"/>
        <vehicle id="veh1" x="4156.11" y="4604.28" angle="81.66" type="veh_passenger" speed="20.73" pos="198.85" lane="75435065_0" slope="0.00"/>
        <vehicle id="veh2" x="12182.49" y="3817.12" angle="291.06" type="veh_passenger" speed="15.00" pos="76.25" lane="539328454_2" slope="0.00"/>
    </timestep>
    <timestep time="44.00">
        <vehicle id="veh0" x="8263.94" y="5702.77" angle="343.03" type="veh_passenger" speed="0.00" pos="21.47" lane="251582019_4" slope="0.00"/>
        <vehicle id="veh1" x="4176.33" y="4607.24" angle="81.66" type="veh_passenger" speed="20.53" pos="219.38" lane="75435065_0" slope="0.00"/>
        <vehicle id="veh2" x="12168.49" y="3822.51" angle="291.06" type="veh_passenger" speed="15.00" pos="91.25" lane="539328454_2" slope="0.00"/>
    </timestep>
    <timestep time="45.00">
        <vehicle id="veh0" x="8263.94" y="5702.77" angle="343.03" type="veh_passenger" speed="0.00" pos="21.47" lane="251582019_4" slope="0.00"/>
        <vehicle id="veh1" x="4196.58" y="4610.21" angle="81.71" type="veh_passenger" speed="20.56" pos="239.94" lane="75435065_0" slope="0.00"/>
        <vehicle id="veh2" x="12154.16" y="3826.44" angle="276.40" type="veh_passenger" speed="15.00" pos="7.09" lane=":5993064868_0_1" slope="0.00"/>
    </timestep>
    <timestep time="46.00">
        <vehicle id="veh0" x="8263.94" y="5702.77" angle="343.03" type="veh_passenger" speed="0.00" pos="21.47" lane="251582019_4" slope="0.00"/>
        <vehicle id="veh1" x="4216.24" y="4612.93" angle="82.11" type="veh_passenger" speed="19.94" pos="259.88" lane="75435065_0" slope="0.00"/>
        <vehicle id="veh2" x="12140.15" y="3831.77" angle="291.27" type="veh_passenger" speed="15.00" pos="13.88" lane="635302124_1" slope="0.00"/>
    </timestep>
    <timestep time="47.00">
        <vehicle id="veh0" x="8263.94" y="5702.77" angle="343.03" type="veh_passenger" speed="0.00" pos="21.47" lane="251582019_4" slope="0.00"/>
        <vehicle id="veh1" x="4235.94" y="4615.66" angle="82.11" type="veh_passenger" speed="19.99" pos="279.87" lane="75435065_0" slope="0.00"/>
        <vehicle id="veh2" x="12126.17" y="3837.22" angle="291.27" type="veh_passenger" speed="15.00" pos="28.88" lane="635302124_1" slope="0.00"/>
    </timestep>
    <timestep time="48.00">
        <vehicle id="veh0" x="8263.94" y="5702.77" angle="343.03" type="veh_passenger" speed="0.00" pos="21.47" lane="251582019_4" slope="0.00"/>
        <vehicle id="veh1" x="4255.95" y="4620.29" angle="75.16" type="veh_passenger" speed="20.66" pos="300.52" lane="75435065_0" slope="0.00"/>
        <vehicle id="veh2" x="12112.19" y="3842.66" angle="291.27" type="veh_passenger" speed="15.00" pos="43.88" lane="635302124_1" slope="0.00"/>
    </timestep>
    <timestep time="49.00">
        <vehicle id="veh0" x="8263.94" y="5702.77" angle="343.03" type="veh_passenger" speed="0.00" pos="21.47" lane="251582019_4" slope="0.00"/>
        <vehicle id="veh1" x="4275.41" y="4625.45" angle="75.16" type="veh_passenger" speed="20.23" pos="320.75" lane="75435065_0" slope="0.00"/>
        <vehicle id="veh2" x="12098.30" y="3848.32" angle="292.94" type="veh_passenger" speed="15.00" pos="7.99" lane=":cluster_1314882394_5220256144_2_1" slope="0.00"/>
    </timestep>
    <timestep time="50.00">
        <vehicle id="veh0" x="8263.94" y="5702.77" angle="343.03" type="veh_passenger" speed="0.00" pos="21.47" lane="251582019_4" slope="0.00"/>
        <vehicle id="veh1" x="4294.83" y="4631.52" angle="72.15" type="veh_passenger" speed="20.44" pos="341.19" lane="75435065_0" slope="0.00"/>
        <vehicle id="veh2" x="12084.47" y="3854.17" angle="292.94" type="veh_passenger" speed="15.00" pos="22.99" lane=":cluster_1314882394_5220256144_2_1" slope="0.00"/>
    </timestep>
    <timestep time="51.00">
        <vehicle id="veh0" x="8263.94" y="5702.77" angle="343.03" type="veh_passenger" speed="0.00" pos="21.47" lane="251582019_4" slope="0.00"/>
        <vehicle id="veh1" x="4314.19" y="4637.75" angle="72.15" type="veh_passenger" speed="20.43" pos="361.62" lane="75435065_0" slope="0.00"/>
        <vehicle id="veh2" x="12070.68" y="3860.01" angle="292.96" type="veh_passenger" speed="15.00" pos="9.92" lane="262961712_1" slope="0.00"/>
    </timestep>
    <timestep time="52.00">
        <vehicle id="veh0" x="8263.94" y="5702.77" angle="343.03" type="veh_passenger" speed="0.00" pos="21.47" lane="251582019_4" slope="0.00"/>
        <vehicle id="veh1" x="4331.79" y="4646.41" angle="63.15" type="veh_passenger" speed="19.72" pos="381.35" lane="75435065_0" slope="0.00"/>
        <vehicle id="veh2" x="12056.91" y="3865.84" angle="292.96" type="veh_passenger" speed="15.00" pos="24.92" lane="262961712_1" slope="0.00"/>
    </timestep>
    <timestep time="53.00">
        <vehicle id="veh0" x="8263.94" y="5702.77" angle="343.03" type="veh_passenger" speed="0.00" pos="21.47" lane="251582019_4" slope="0.00"/>
        <vehicle id="veh1" x="4349.90" y="4655.63" angle="62.63" type="veh_passenger" speed="20.41" pos="401.76" lane="75435065_0" slope="0.00"/>
        <vehicle id="veh2" x="12043.22" y="3871.88" angle="294.34" type="veh_passenger" speed="15.00" pos="39.92" lane="262961712_1" slope="0.00"/>
    </timestep>
    <timestep time="54.00">
        <vehicle id="veh0" x="8263.94" y="5702.77" angle="343.03" type="veh_passenger" speed="0.00" pos="21.47" lane="251582019_4" slope="0.00"/>
        <vehicle id="veh1" x="4366.83" y="4666.06" angle="58.37" type="veh_passenger" speed="19.98" pos="421.74" lane="75435065_0" slope="0.00"/>
        <vehicle id="veh2" x="12029.58" y="3878.02" angle="294.02" type="veh_passenger" speed="15.00" pos="1.24" lane=":4753041725_1_1" slope="0.00"/>
    </timestep>
    <timestep time="55.00">
        <vehicle id="veh0" x="8263.94" y="5702.77" angle="343.03" type="veh_passenger" speed="0.00" pos="21.47" lane="251582019_4" slope="0.00"/>
        <vehicle id="veh1" x="4383.45" y="4677.84" angle="51.28" type="veh_passenger" speed="20.50" pos="442.25" lane="75435065_0" slope="0.00"/>
        <vehicle id="veh2" x="12015.75" y="3883.92" angle="293.23" type="veh_passenger" speed="15.00" pos="5.35" lane="479774986#1_1" slope="0.00"/>
    </timestep>
    <timestep time="56.00">
        <vehicle id="veh0" x="8263.94" y="5702.77" angle="343.03" type="veh_passenger" speed="0.00" pos="21.47" lane="251582019_4" slope="0.00"/>
        <vehicle id="veh1" x="4399.35" y="4690.58" angle="51.28" type="veh_passenger" speed="20.47" pos="462.71" lane="75435065_0" slope="0.00"/>
        <vehicle id="veh2" x="12001.68" y="3888.74" angle="285.20" type="veh_passenger" speed="15.00" pos="0.36" lane="479774985#0_0" slope="0.00"/>
    </timestep>
    <timestep time="57.00">
        <vehicle id="veh0" x="8263.94" y="5702.77" angle="343.03" type="veh_passenger" speed="0.00" pos="21.47" lane="251582019_4" slope="0.00"/>