<?xml version="1.0" encoding="UTF-8"?>

<!-- generated on 2023-02-19 15:58:20 by Eclipse SUMO GUI Version 1.16.0
<configuration xmlns:xsi="http://www.w3.org/2001/XMLSchema-instance" xsi:noNamespaceSchemaLocation="http://sumo.dlr.de/xsd/sumoConfiguration.xsd">

    <input>
        <net-file value="/Users/jemeryhua/Desktop/demo/demo_sumo/sumo-example/src/osm.net.xml"/>
        <route-files value="/Users/jemeryhua/Desktop/demo/demo_sumo/sumo-example/src/osm.passenger.trips.xml"/>
        <additional-files value="/Users/jemeryhua/Desktop/demo/demo_sumo/sumo-example/src/osm.poly.xml"/>
    </input>

    <output>
        <netstate-dump value="/Users/jemeryhua/Desktop/demo/demo_sumo/sumo-example/src/netstate_outfile. xml"/>
        <fcd-output value="/Users/jemeryhua/Desktop/demo/demo_sumo/sumo-example/src/fcd_outfile.xml"/>
        <queue-output value="/Users/jemeryhua/Desktop/demo/demo_sumo/sumo-example/src/queue_outfile_outfile.xml"/>
        <vehroute-output value="/Users/jemeryhua/Desktop/demo/demo_sumo/sumo-example/src/vehicleroute_outfile.xml"/>
        <lanechange-output value="/Users/jemeryhua/Desktop/demo/demo_sumo/sumo-example/src/lanechange_outfile.xml"/>
        <statistic-output value="/Users/jemeryhua/Desktop/demo/demo_sumo/sumo-example/src/stats_outfile_outfile.xml"/>
    </output>

    <processing>
        <ignore-route-errors value="true"/>
    </processing>

    <routing>
        <device.rerouting.adaptation-steps value="18"/>
        <device.rerouting.adaptation-interval value="10"/>
    </routing>

    <report>
        <verbose value="true"/>
        <duration-log.statistics value="true"/>
        <no-step-log value="true"/>
    </report>

    <gui_only>
        <gui-settings-file value="/Users/jemeryhua/Desktop/demo/demo_sumo/sumo-example/src/osm.view.xml"/>
    </gui_only>

</configuration>
-->

<netstate xmlns:xsi="http://www.w3.org/2001/XMLSchema-instance" xsi:noNamespaceSchemaLocation="http://sumo.dlr.de/xsd/netstate_file.xsd">
</netstate>
p time="0.00">
        <edge id="637957161">
            <lane id="637957161_0"/>
            <lane id="637957161_1"/>
            <lane id="637957161_2">
                <vehicle id="veh0" pos="5.10" speed="0.00"/>
            </lane>
        </edge>
    </timestep>
    <timestep time="1.00">
        <edge id="32877553-AddedOnRampEdge">
            <lane id="32877553-AddedOnRampEdge_0"/>
            <lane id="32877553-AddedOnRampEdge_1">
                <vehicle id="veh1" pos="5.10" speed="0.00"/>
            </lane>
            <lane id="32877553-AddedOnRampEdge_2"/>
            <lane id="32877553-AddedOnRampEdge_3"/>
            <lane id="32877553-AddedOnRampEdge_4"/>
        </edge>
        <edge id="637957161">
            <lane id="637957161_0"/>
            <lane id="637957161_1"/>
            <lane id="637957161_2">
                <vehicle id="veh0" pos="7.28" speed="2.18"/>
            </lane>
        </edge>
        <edge id="646226502">
            <lane id="646226502_0">
                <vehicle id="veh2" pos="5.10" speed="0.00"/>
            </lane>
            <lane id="646226502_1"/>
        </edge>
    </timestep>
    <timestep time="2.00">
        <edge id=":6642371597_0">
            <lane id=":6642371597_0_0"/>
            <lane id=":6642371597_0_1"/>
            <lane id=":6642371597_0_2"/>
            <lane id=":6642371597_0_3">
                <vehicle id="veh0" pos="0.32" speed="4.62"/>
            </lane>
            <lane id=":6642371597_0_4"/>
        </edge>
        <edge id="32877553-AddedOnRampEdge">
            <lane id="32877553-AddedOnRampEdge_0"/>
            <lane id="32877553-AddedOnRampEdge_1">
                <vehicle id="veh1" pos="7.35" speed="2.25"/>
            </lane>
            <lane id="32877553-AddedOnRampEdge_2"/>
            <lane id="32877553-AddedOnRampEdge_3"/>
            <lane id="32877553-AddedOnRampEdge_4"/>
        </edge>
        <edge id="646226502">
            <lane id="646226502_0">
                <vehicle id="veh2" pos="6.48" speed="1.38"/>
            </lane>
            <lane id="646226502_1"/>
        </edge>
    </timestep>
    <timestep time="3.00">
        <edge id=":6642371597_0">
            <lane id=":6642371597_0_0"/>
            <lane id=":6642371597_0_1"/>
            <lane id=":6642371597_0_2"/>
            <lane id=":6642371597_0_3">
                <vehicle id="veh0" pos="6.49" speed="6.16"/>
            </lane>
            <lane id=":6642371597_0_4"/>
        </edge>
        <edge id="32877553-AddedOnRampEdge">
            <lane id="32877553-AddedOnRampEdge_0"/>
            <lane id="32877553-AddedOnRampEdge_1">
                <vehicle id="veh1" pos="11.46" speed="4.11"/>
            </lane>
            <lane id="32877553-AddedOnRampEdge_2"/>
            <lane id="32877553-AddedOnRampEdge_3"/>
            <lane id="32877553-AddedOnRampEdge_4"/>
        </edge>
        <edge id="646226502">
            <lane id="646226502_0">
                <vehicle id="veh2" pos="10.37" speed="3.90"/>
            </lane>
            <lane id="646226502_1"/>
        </edge>
    </timestep>
    <timestep time="4.00">
        <edge id="32877553-AddedOnRampEdge">
            <lane id="32877553-AddedOnRampEdge_0"/>
            <lane id="32877553-AddedOnRampEdge_1">
                <vehicle id="veh1" pos="17.52" speed="6.06"/>
            </lane>
            <lane id="32877553-AddedOnRampEdge_2"/>
            <lane id="32877553-AddedOnRampEdge_3"/>
            <lane id="32877553-AddedOnRampEdge_4"/>
        </edge>
        <edge id="646226502">
            <lane id="646226502_0">
                <vehicle id="veh2" pos="16.62" speed="6.25"/>
            </lane>
            <lane id="646226502_1"/>
        </edge>
        <edge id="706845933">
            <lane id="706845933_0"/>
            <lane id="706845933_1"/>
            <lane id="706845933_2"/>
            <lane id="706845933_3">
                <vehicle id="veh0" pos="5.74" speed="7.57"/>
            </lane>
            <lane id="706845933_4"/>
        </edge>
    </timestep>
    <timestep time="5.00">
        <edge id="32877553-AddedOnRampEdge">
            <lane id="32877553-AddedOnRampEdge_0"/>
            <lane id="32877553-AddedOnRampEdge_1">
                <vehicle id="veh1" pos="26.17" speed="8.65"/>
            </lane>
            <lane id="32877553-AddedOnRampEdge_2"/>
            <lane id="32877553-AddedOnRampEdge_3"/>
            <lane id="32877553-AddedOnRampEdge_4"/>
        </edge>
        <edge id="646226502">
            <lane id="646226502_0">
                <vehicle id="veh2" pos="25.08" speed="8.46"/>
            </lane>
            <lane id="646226502_1"/>
        </edge>
        <edge id="706845933">
            <lane id="706845933_0"/>
            <lane id="706845933_1"/>
            <lane id="706845933_2"/>
            <lane id="706845933_3">
                <vehicle id="veh0" pos="15.72" speed="9.98"/>
            </lane>
            <lane id="706845933_4"/>
        </edge>
    </timestep>
    <timestep time="6.00">
        <edge id=":cluster_246141084_4386856096_4386856099_4386856102_4386856105_4386856106_4386856108_4386856110_4386856117_6642371596_7384819988_8407243205_8407243206_12">
            <lane id=":cluster_246141084_4386856096_4386856099_4386856102_4386856105_4386856106_4386856108_4386856110_4386856117_6642371596_7384819988_8407243205_8407243206_12_0">
                <vehicle id="veh0" pos="2.08" speed="7.28"/>
            </lane>
        </edge>
        <edge id=":cluster_5166597569_8347561860_1">
            <lane id=":cluster_5166597569_8347561860_1_0">
                <vehicle id="veh2" pos="4.43" speed="9.82"/>
            </lane>
            <lane id=":cluster_5166597569_8347561860_1_1"/>
        </edge>
        <edge id="32877553-AddedOnRampEdge">
            <lane id="32877553-AddedOnRampEdge_0"/>
            <lane id="32877553-AddedOnRampEdge_1">
                <vehicle id="veh1" pos="36.37" speed="10.20"/>
            </lane>
            <lane id="32877553-AddedOnRampEdge_2"/>
            <lane id="32877553-AddedOnRampEdge_3"/>
            <lane id="32877553-AddedOnRampEdge_4"/>
        </edge>
    </timestep>
    <timestep time="7.00">
        <edge id=":cluster_246141084_4386856096_4386856099_4386856102_4386856105_4386856106_4386856108_4386856110_4386856117_6642371596_7384819988_8407243205_8407243206_12">
            <lane id=":cluster_246141084_4386856096_4386856099_4386856102_4386856105_4386856106_4386856108_4386856110_4386856117_6642371596_7384819988_8407243205_8407243206_12_0">
                <vehicle id="veh0" pos="8.57" speed="6.49"/>
            </lane>
        </edge>
        <edge id="32877553-AddedOnRampEdge">
            <lane id="32877553-AddedOnRampEdge_0"/>
            <lane id="32877553-AddedOnRampEdge_1">
                <vehicle id="veh1" pos="47.97" speed="11.60"/>
            </lane>
            <lane id="32877553-AddedOnRampEdge_2"/>
            <lane id="32877553-AddedOnRampEdge_3"/>
            <lane id="32877553-AddedOnRampEdge_4"/>
        </edge>
        <edge id="646226504">
            <lane id="646226504_0">
                <vehicle id="veh2" pos="7.20" speed="12.20"/>
            </lane>
            <lane id="646226504_1"/>
        </edge>
    </timestep>
    <timestep time="8.00">
        <edge id=":6642371592_0">
            <lane id=":6642371592_0_0"/>
            <lane id=":6642371592_0_1">
                <vehicle id="veh0" pos="2.48" speed="5.61"/>
            </lane>
        </edge>
        <edge id="32877553-AddedOnRampEdge">
            <lane id="32877553-AddedOnRampEdge_0"/>
            <lane id="32877553-AddedOnRampEdge_1">
                <vehicle id="veh1" pos="60.97" speed="13.00"/>
            </lane>
            <lane id="32877553-AddedOnRampEdge_2"/>
            <lane id="32877553-AddedOnRampEdge_3"/>
            <lane id="32877553-AddedOnRampEdge_4"/>
        </edge>
        <edge id="646226504">
            <lane id="646226504_0">
                <vehicle id="veh2" pos="20.30" speed="13.10"/>
            </lane>
            <lane id="646226504_1"/>
        </edge>
    </timestep>
    <timestep time="9.00">
        <edge id="32877553-AddedOnRampEdge">
            <lane id="32877553-AddedOnRampEdge_0"/>
            <lane id="32877553-AddedOnRampEdge_1">
                <vehicle id="veh1" pos="76.10" speed="15.13"/>
            </lane>
            <lane id="32877553-AddedOnRampEdge_2"/>
            <lane id="32877553-AddedOnRampEdge_3"/>
            <lane id="32877553-AddedOnRampEdge_4"/>
        </edge>
        <edge id="646226504">
            <lane id="646226504_0">
                <vehicle id="veh2" pos="34.10" speed="13.80"/>
            </lane>
            <lane id="646226504_1"/>
        </edge>
        <edge id="74939755#2">
            <lane id="74939755#2_0"/>
            <lane id="74939755#2_1"/>
            <lane id="74939755#2_2">
                <vehicle id="veh0" pos="0.57" speed="4.79"/>
            </lane>
        </edge>
    </timestep>
    <timestep time="10.00">
        <edge id="32877553-AddedOnRampEdge">
            <lane id="32877553-AddedOnRampEdge_0"/>
            <lane id="32877553-AddedOnRampEdge_1">
                <vehicle id="veh1" pos="93.38" speed="17.28"/>
            </lane>
            <lane id="32877553-AddedOnRampEdge_2"/>
            <lane id="32877553-AddedOnRampEdge_3"/>
            <lane id="32877553-AddedOnRampEdge_4"/>
        </edge>
        <edge id="646226504">
            <lane id="646226504_0">
                <vehicle id="veh2" pos="48.11" speed="14.01"/>
            </lane>
            <lane id="646226504_1"/>
        </edge>
        <edge id="74939755#2">
            <lane id="74939755#2_0"/>
            <lane id="74939755#2_1"/>
            <lane id="74939755#2_2">
                <vehicle id="veh0" pos="7.24" speed="6.67"/>
            </lane>
        </edge>
    </timestep>
    <timestep time="11.00">
        <edge id="32877553">
            <lane id="32877553_0">
                <vehicle id="veh1" pos="8.19" speed="18.92"/>
            </lane>
            <lane id="32877553_1"/>
            <lane id="32877553_2"/>
            <lane id="32877553_3"/>
        </edge>
        <edge id="646226504">
            <lane id="646226504_0">
                <vehicle id="veh2" pos="61.98" speed="13.87"/>
            </lane>
            <lane id="646226504_1"/>
        </edge>
        <edge id="74939755#2">
            <lane id="74939755#2_0"/>
            <lane id="74939755#2_1"/>
            <lane id="74939755#2_2">
                <vehicle id="veh0" pos="15.85" speed="8.61"/>
            </lane>
        </edge>
    </timestep>
    <timestep time="12.00">
        <edge id=":5220256172_0">
            <lane id=":5220256172_0_0">
                <vehicle id="veh2" pos="0.32" speed="13.89"/>
            </lane>
        </edge>
        <edge id="32877553">
            <lane id="32877553_0">
                <vehicle id="veh1" pos="28.06" speed="19.88"/>
            </lane>
            <lane id="32877553_1"/>
            <lane id="32877553_2"/>
            <lane id="32877553_3"/>
        </edge>
        <edge id="74939755#2">
            <lane id="74939755#2_0"/>
            <lane id="74939755#2_1"/>
            <lane id="74939755#2_2">
                <vehicle id="veh0" pos="26.89" speed="11.04"/>
            </lane>
        </edge>
    </timestep>
    <timestep time="13.00">
        <edge id="32877553">
            <lane id="32877553_0">
                <vehicle id="veh1" pos="47.95" speed="19.89"/>
            </lane>
            <lane id="32877553_1"/>
            <lane id="32877553_2"/>
            <lane id="32877553_3"/>
        </edge>
        <edge id="646794847">
            <lane id="646794847_0">
                <vehicle id="veh2" pos="7.56" speed="13.42"/>
            </lane>
        </edge>
        <edge id="74939755#2">
            <lane id="74939755#2_0"/>
            <lane id="74939755#2_1"/>
            <lane id="74939755#2_2">
                <vehicle id="veh0" pos="39.72" speed="12.83"/>
            </lane>
        </edge>
    </timestep>
    <timestep time="14.00">
        <edge id="32877553">
            <lane id="32877553_0">
                <vehicle id="veh1" pos="67.93" speed="19.98"/>
            </lane>
            <lane id="32877553_1"/>
            <lane id="32877553_2"/>
            <lane id="32877553_3"/>
        </edge>
        <edge id="641308557">
            <lane id="641308557_0">
                <vehicle id="veh2" pos="0.20" speed="13.64"/>
            </lane>
        </edge>
        <edge id="74939755#2">
            <lane id="74939755#2_0"/>
            <lane id="74939755#2_1"/>
            <lane id="74939755#2_2">
                <vehicle id="veh0" pos="54.36" speed="14.64"/>
            </lane>
        </edge>
    </timestep>
    <timestep time="15.00">
        <edge id="32877553">
            <lane id="32877553_0">
                <vehicle id="veh1" pos="87.95" speed="20.02"/>
            </lane>
            <lane id="32877553_1"/>
            <lane id="32877553_2"/>
            <lane id="32877553_3"/>
        </edge>
        <edge id="641308557">
            <lane id="641308557_0">
                <vehicle id="veh2" pos="13.52" speed="13.32"/>
            </lane>
        </edge>
        <edge id="74939755#2">
            <lane id="74939755#2_0"/>
            <lane id="74939755#2_1"/>
            <lane id="74939755#2_2">
                <vehicle id="veh0" pos="70.90" speed="16.54"/>
            </lane>
        </edge>
    </timestep>
    <timestep time="16.00">
        <edge id=":5973631229_0">
            <lane id=":5973631229_0_0"/>
            <lane id=":5973631229_0_1">
                <vehicle id="veh2" pos="4.44" speed="13.51"/>
            </lane>
        </edge>
        <edge id="32877553">
            <lane id="32877553_0">
                <vehicle id="veh1" pos="108.18" speed="20.23"/>
            </lane>
            <lane id="32877553_1"/>
            <lane id="32877553_2"/>
            <lane id="32877553_3"/>
        </edge>
        <edge id="74939755#2">
            <lane id="74939755#2_0"/>
            <lane id="74939755#2_1"/>
            <lane id="74939755#2_2">
                <vehicle id="veh0" pos="89.93" speed="19.04"/>
            </lane>
        </edge>
    </timestep>
    <timestep time="17.00">
        <edge id="32877553">
            <lane id="32877553_0">
                <vehicle id="veh1" pos="128.42" speed="20.24"/>
            </lane>
            <lane id="32877553_1"/>
            <lane id="32877553_2"/>
            <lane id="32877553_3"/>
        </edge>
        <edge id="664961871#0">
            <lane id="664961871#0_0"/>
            <lane id="664961871#0_1">
                <vehicle id="veh2" pos="8.96" speed="12.82"/>
            </lane>
        </edge>
        <edge id="74939755#2">
            <lane id="74939755#2_0"/>
            <lane id="74939755#2_1"/>
            <lane id="74939755#2_2">
                <vehicle id="veh0" pos="109.25" speed="19.32"/>
            </lane>
        </edge>
    </timestep>
    <timestep time="18.00">
        <edge id="32877553">
            <lane id="32877553_0">
                <vehicle id="veh1" pos="148.41" speed="20.00"/>
            </lane>
            <lane id="32877553_1"/>
            <lane id="32877553_2"/>
            <lane id="32877553_3"/>
        </edge>
        <edge id="664961871#0">
            <lane id="664961871#0_0"/>
            <lane id="664961871#0_1">
                <vehicle id="veh2" pos="17.64" speed="8.68"/>
            </lane>
        </edge>
        <edge id="74939755#2">
            <lane id="74939755#2_0"/>
            <lane id="74939755#2_1"/>
            <lane id="74939755#2_2">
                <vehicle id="veh0" pos="129.38" speed="20.13"/>
            </lane>
        </edge>
    </timestep>
    <timestep time="19.00">
        <edge id="32877553">
            <lane id="32877553_0">
                <vehicle id="veh1" pos="167.99" speed="19.57"/>
            </lane>
            <lane id="32877553_1"/>
            <lane id="32877553_2"/>
            <lane id="32877553_3"/>
        </edge>
        <edge id="664961871#0">
            <lane id="664961871#0_0"/>
            <lane id="664961871#0_1">
                <vehicle id="veh2" pos="21.83" speed="4.18"/>
            </lane>
        </edge>
        <edge id="74939755#3">
            <lane id="74939755#3_0"/>
            <lane id="74939755#3_1"/>
            <lane id="74939755#3_2">
                <vehicle id="veh0" pos="10.26" speed="19.80"/>
            </lane>
        </edge>
    </timestep>
    <timestep time="20.00">
        <edge id=":5220729271_1">
            <lane id=":5220729271_1_0"/>
            <lane id=":5220729271_1_1"/>
            <lane id=":5220729271_1_2">
                <vehicle id="veh0" pos="2.83" speed="19.99"/>
            </lane>
        </edge>
        <edge id=":cluster_246580175_4726320180_8424581520_5">
            <lane id=":cluster_246580175_4726320180_8424581520_5_0">
                <vehicle id="veh2" pos="5.45" speed="5.97"/>
            </lane>
        </edge>
        <edge id="32877553">
            <lane id="32877553_0">
                <vehicle id="veh1" pos="188.58" speed="20.59"/>
            </lane>
            <lane id="32877553_1"/>
            <lane id="32877553_2"/>
            <lane id="32877553_3"/>
        </edge>
    </timestep>
    <timestep time="21.00">
        <edge id=":cluster_246580175_4726320180_8424581520_5">
            <lane id=":cluster_246580175_4726320180_8424581520_5_0">
                <vehicle id="veh2" pos="12.93" speed="7.49"/>
            </lane>
        </edge>
        <edge id="146658738#1">
            <lane id="146658738#1_0"/>
            <lane id="146658738#1_1"/>
            <lane id="146658738#1_2">
                <vehicle id="veh0" pos="12.22" speed="19.76"/>
            </lane>
        </edge>
        <edge id="32877553">
            <lane id="32877553_0">
                <vehicle id="veh1" pos="209.26" speed="20.68"/>
            </lane>
            <lane id="32877553_1"/>
            <lane id="32877553_2"/>
            <lane id="32877553_3"/>
        </edge>
    </timestep>
    <timestep time="22.00">
        <edge id="146658738#1">
            <lane id="146658738#1_0"/>
            <lane id="146658738#1_1"/>
            <lane id="146658738#1_2">
                <vehicle id="veh0" pos="32.66" speed="20.44"/>
            </lane>
        </edge>
        <edge id="32877553">
            <lane id="32877553_0">
                <vehicle id="veh1" pos="228.86" speed="19.60"/>
            </lane>
            <lane id="32877553_1"/>
            <lane id="32877553_2"/>
            <lane id="32877553_3"/>
        </edge>
        <edge id="747390011">
            <lane id="747390011_0"/>
            <lane id="747390011_1">
                <vehicle id="veh2" pos="0.44" speed="9.37"/>
            </lane>
        </edge>
    </timestep>
    <timestep time="23.00">
        <edge id="146658738#1">
            <lane id="146658738#1_0"/>
            <lane id="146658738#1_1"/>
            <lane id="146658738#1_2">
                <vehicle id="veh0" pos="52.79" speed="20.13"/>
            </lane>
        </edge>
        <edge id="32877553">
            <lane id="32877553_0">
                <vehicle id="veh1" pos="249.12" speed="20.26"/>
            </lane>
            <lane id="32877553_1"/>
            <lane id="32877553_2"/>
            <lane id="32877553_3"/>
        </edge>
        <edge id="747390011">
            <lane id="747390011_0"/>
            <lane id="747390011_1">
                <vehicle id="veh2" pos="11.82" speed="11.39"/>
            </lane>
        </edge>
    </timestep>
    <timestep time="24.00">
        <edge id="146658738#1">
            <lane id="146658738#1_0"/>
            <lane id="146658738#1_1"/>
            <lane id="146658738#1_2">
                <vehicle id="veh0" pos="72.59" speed="19.80"/>
            </lane>
        </edge>
        <edge id="32877553">
            <lane id="32877553_0">
                <vehicle id="veh1" pos="269.50" speed="20.39"/>
            </lane>
            <lane id="32877553_1"/>
            <lane id="32877553_2"/>
            <lane id="32877553_3"/>
        </edge>
        <edge id="747390011">
            <lane id="747390011_0"/>
            <lane id="747390011_1">
                <vehicle id="veh2" pos="25.03" speed="13.21"/>
            </lane>
        </edge>
    </timestep>
    <timestep time="25.00">
        <edge id="146658738#1">
            <lane id="146658738#1_0"/>
            <lane id="146658738#1_1"/>
            <lane id="146658738#1_2">
                <vehicle id="veh0" pos="93.15" speed="20.56"/>
            </lane>
        </edge>
        <edge id="32877553">
            <lane id="32877553_0">
                <vehicle id="veh1" pos="289.55" speed="20.05"/>
            </lane>
            <lane id="32877553_1"/>
            <lane id="32877553_2"/>
            <lane id="32877553_3"/>
        </edge>
        <edge id="747390011">
            <lane id="747390011_0"/>
            <lane id="747390011_1">
                <vehicle id="veh2" pos="38.00" speed="12.97"/>
            </lane>
        </edge>
    </timestep>
    <timestep time="26.00">
        <edge id=":6096026683_0">
            <lane id=":6096026683_0_0"/>
            <lane id=":6096026683_0_1">
                <vehicle id="veh1" pos="7.95" speed="19.71"/>
            </lane>
            <lane id=":6096026683_0_2"/>
            <lane id=":6096026683_0_3"/>
            <lane id=":6096026683_0_4"/>
        </edge>
        <edge id="639551506">
            <lane id="639551506_0"/>
            <lane id="639551506_1"/>
            <lane id="639551506_2"/>
            <lane id="639551506_3">
                <vehicle id="veh0" pos="6.60" speed="19.92"/>
            </lane>
            <lane id="639551506_4"/>
        </edge>
        <edge id="747390011">
            <lane id="747390011_0"/>
            <lane id="747390011_1">
                <vehicle id="veh2" pos="51.86" speed="13.86"/>
            </lane>
        </edge>
    </timestep>
    <timestep time="27.00">
        <edge id="639551505">
            <lane id="639551505_0"/>
            <lane id="639551505_1"/>
            <lane id="639551505_2"/>
            <lane id="639551505_3">
                <vehicle id="veh0" pos="4.28" speed="20.48"/>
            </lane>
        </edge>
        <edge id="649605845">
            <lane id="649605845_0"/>
            <lane id="649605845_1">
                <vehicle id="veh1" pos="20.14" speed="20.35"/>
            </lane>
            <lane id="649605845_2"/>
            <lane id="649605845_3"/>
            <lane id="649605845_4"/>
        </edge>
        <edge id="747390011">
            <lane id="747390011_0"/>
            <lane id="747390011_1">
                <vehicle id="veh2" pos="64.74" speed="12.88"/>
            </lane>
        </edge>
    </timestep>
    <timestep time="28.00">
        <edge id="482087300">
            <lane id="482087300_0"/>
            <lane id="482087300_1"/>
            <lane id="482087300_2"/>
            <lane id="482087300_3"/>
            <lane id="482087300_4">
                <vehicle id="veh0" pos="4.31" speed="20.53"/>
            </lane>
        </edge>
        <edge id="649605845">
            <lane id="649605845_0"/>
            <lane id="649605845_1">
                <vehicle id="veh1" pos="39.82" speed="19.68"/>
            </lane>
            <lane id="649605845_2"/>
            <lane id="649605845_3"/>
            <lane id="649605845_4"/>
        </edge>
        <edge id="747390011">
            <lane id="747390011_0"/>
            <lane id="747390011_1">
                <vehicle id="veh2" pos="77.94" speed="13.20"/>
            </lane>
        </edge>
    </timestep>
    <timestep time="29.00">
        <edge id="649370259">
            <lane id="649370259_0"/>
            <lane id="649370259_1"/>
            <lane id="649370259_2"/>
            <lane id="649370259_3"/>
            <lane id="649370259_4"/>
            <lane id="649370259_5">
                <vehicle id="veh0" pos="0.06" speed="19.38"/>
            </lane>
        </edge>
        <edge id="649605845">
            <lane id="649605845_0"/>
            <lane id="649605845_1">
                <vehicle id="veh1" pos="60.67" speed="20.85"/>
            </lane>
            <lane id="649605845_2"/>
            <lane id="649605845_3"/>
            <lane id="649605845_4"/>
        </edge>
        <edge id="747390011">
            <lane id="747390011_0"/>
            <lane id="747390011_1">
                <vehicle id="veh2" pos="90.05" speed="12.11"/>
            </lane>
        </edge>
    </timestep>
    <timestep time="30.00">
        <edge id=":4745340919_1">
            <lane id=":4745340919_1_0"/>
            <lane id=":4745340919_1_1"/>
            <lane id=":4745340919_1_2"/>
            <lane id=":4745340919_1_3"/>
            <lane id=":4745340919_1_4">
                <vehicle id="veh0" pos="4.22" speed="15.73"/>
            </lane>
        </edge>
        <edge id=":cluster_246580179_246580195_4323498694_4726320174_4726320175_4726320176_8424183219_8424183220_8424183225_8424183226_1">
            <lane id=":cluster_246580179_246580195_4323498694_4726320174_4726320175_4726320176_8424183219_8424183220_8424183225_8424183226_1_0"/>
            <lane id=":cluster_246580179_246580195_4323498694_4726320174_4726320175_4726320176_8424183219_8424183220_8424183225_8424183226_1_1">
                <vehicle id="veh2" pos="10.78" speed="11.95"/>
            </lane>
        </edge>
        <edge id="649605845">
            <lane id="649605845_0"/>
            <lane id="649605845_1">
                <vehicle id="veh1" pos="81.09" speed="20.42"/>
            </lane>
            <lane id="649605845_2"/>
            <lane id="649605845_3"/>
            <lane id="649605845_4"/>
        </edge>
    </timestep>
    <timestep time="31.00">
        <edge id=":cluster_246580179_246580195_4323498694_4726320174_4726320175_4726320176_8424183219_8424183220_8424183225_8424183226_1">
            <lane id=":cluster_246580179_246580195_4323498694_4726320174_4726320175_4726320176_8424183219_8424183220_8424183225_8424183226_1_0"/>
            <lane id=":cluster_246580179_246580195_4323498694_4726320174_4726320175_4726320176_8424183219_8424183220_8424183225_8424183226_1_1">
                <vehicle id="veh2" pos="23.02" speed="12.24"/>
            </lane>
        </edge>
        <edge id="251582019">
            <lane id="251582019_0"/>
            <lane id="251582019_1"/>
            <lane id="251582019_2"/>
            <lane id="251582019_3"/>
            <lane id="251582019_4">
                <vehicle id="veh0" pos="8.19" speed="11.86"/>
            </lane>
        </edge>
        <edge id="649605845">
            <lane id="649605845_0"/>
            <lane id="649605845_1">
                <vehicle id="veh1" pos="101.76" speed="20.68"/>
            </lane>
            <lane id="649605845_2"/>
            <lane id="649605845_3"/>
            <lane id="649605845_4"/>
        </edge>
    </timestep>
    <timestep time="32.00">
        <edge id="251582019">
            <lane id="251582019_0"/>
            <lane id="251582019_1"/>
            <lane id="251582019_2"/>
            <lane id="251582019_3"/>
            <lane id="251582019_4">
                <vehicle id="veh0" pos="16.69" speed="8.50"/>
            </lane>
        </edge>
        <edge id="649605845">
            <lane id="649605845_0"/>
            <lane id="649605845_1">
                <vehicle id="veh1" pos="122.05" speed="20.28"/>
            </lane>
            <lane id="649605845_2"/>
            <lane id="649605845_3"/>
            <lane id="649605845_4"/>
        </edge>
        <edge id="74860023#1">
            <lane id="74860023#1_0"/>
            <lane id="74860023#1_1">