<?xml version="1.0" encoding="UTF-8"?>

<!-- generated on 2023-02-24 09:20:17 by Eclipse SUMO GUI Version 1.16.0
<configuration xmlns:xsi="http://www.w3.org/2001/XMLSchema-instance"
xsi:noNamespaceSchemaLocation="http://sumo.dlr.de/xsd/sumoConfiguration.xsd">

    <input>
        <net-file value="/Users/jemeryhua/Desktop/demo_sumo/_todo_Test/pycharm-sumo/task/task.net.xml"/>
        <route-files value="/Users/jemeryhua/Desktop/demo_sumo/_todo_Test/pycharm-sumo/task/task.rou.xml"/>
    </input>

    <output>
        <queue-output
value="/Users/jemeryhua/Desktop/demo_sumo/_todo_Test/pycharm-sumo/task/output_queue.xml"/>
    </output>

    <time>
        <begin value="0"/>
        <end value="3600"/>
    </time>

</configuration>
-->

<queue-export xmlns:xsi="http://www.w3.org/2001/XMLSchema-instance"
    xsi:noNamespaceSchemaLocation="http://sumo.dlr.de/xsd/queue_file.xsd">
    <data time</queue-export>
     <lanes />
    </data>
    <data timestep="1.00">
        <lanes />
    </data>
    <data timestep="2.00">
        <lanes />
    </data>
    <data timestep="3.00">
        <lanes />
    </data>
    <data timestep="4.00">
        <lanes />
    </data>
    <data timestep="5.00">
        <lanes />
    </data>
    <data timestep="6.00">
        <lanes />
    </data>
    <data timestep="7.00">
        <lanes />
    </data>
    <data timestep="8.00">
        <lanes />
    </data>
    <data timestep="9.00">
        <lanes />
    </data>
    <data timestep="10.00">
        <lanes />
    </data>
    <data timestep="11.00">
        <lanes />
    </data>
    <data timestep="12.00">
        <lanes />
    </data>
    <data timestep="13.00">
        <lanes />
    </data>
    <data timestep="14.00">
        <lanes />
    </data>
    <data timestep="15.00">
        <lanes />
    </data>
    <data timestep="16.00">
        <lanes />
    </data>
    <data timestep="17.00">
        <lanes />
    </data>
    <data timestep="18.00">
        <lanes />
    </data>
    <data timestep="19.00">
        <lanes>
            <lane id="gneE10_0" queueing_time="1.00" queueing_length="6.04"
                queueing_length_experimental="6.04" />
            <lane id="gneE14_0" queueing_time="0.00" queueing_length="0.00"
                queueing_length_experimental="6.07" />
        </lanes>
    </data>
    <data timestep="20.00">
        <lanes>
            <lane id="gneE10_0" queueing_time="2.00" queueing_length="6.01"
                queueing_length_experimental="6.01" />
            <lane id="gneE14_0" queueing_time="1.00" queueing_length="6.03"
                queueing_length_experimental="6.03" />
        </lanes>
    </data>
    <data timestep="21.00">
        <lanes>
            <lane id="gneE10_0" queueing_time="3.00" queueing_length="6.00"
                queueing_length_experimental="6.00" />
            <lane id="gneE14_0" queueing_time="2.00" queueing_length="6.01"
                queueing_length_experimental="6.01" />
        </lanes>
    </data>
    <data timestep="22.00">
        <lanes>
            <lane id="gneE10_0" queueing_time="4.00" queueing_length="6.00"
                queueing_length_experimental="6.00" />
            <lane id="gneE14_0" queueing_time="3.00" queueing_length="6.00"
                queueing_length_experimental="6.00" />
        </lanes>
    </data>
    <data timestep="23.00">
        <lanes>
            <lane id="gneE10_0" queueing_time="5.00" queueing_length="6.00"
                queueing_length_experimental="6.00" />
            <lane id="gneE14_0" queueing_time="4.00" queueing_length="6.00"
                queueing_length_experimental="6.00" />
        </lanes>
    </data>
    <data timestep="24.00">
        <lanes>
            <lane id="gneE10_0" queueing_time="6.00" queueing_length="6.00"
                queueing_length_experimental="6.00" />
            <lane id="gneE14_0" queueing_time="5.00" queueing_length="6.00"
                queueing_length_experimental="6.00" />
        </lanes>
    </data>
    <data timestep="25.00">
        <lanes>
            <lane id="gneE10_0" queueing_time="7.00" queueing_length="6.00"
                queueing_length_experimental="6.00" />
            <lane id="gneE14_0" queueing_time="6.00" queueing_length="6.00"
                queueing_length_experimental="6.00" />
        </lanes>
    </data>
    <data timestep="26.00">
        <lanes>
            <lane id="gneE10_0" queueing_time="8.00" queueing_length="6.00"
                queueing_length_experimental="6.00" />
            <lane id="gneE14_0" queueing_time="7.00" queueing_length="6.00"
                queueing_length_experimental="6.00" />
        </lanes>
    </data>
    <data timestep="27.00">
        <lanes>
            <lane id="gneE10_0" queueing_time="9.00" queueing_length="6.00"
                queueing_length_experimental="6.00" />
            <lane id="gneE14_0" queueing_time="8.00" queueing_length="6.00"
                queueing_length_experimental="6.00" />
        </lanes>
    </data>
    <data timestep="28.00">
        <lanes>
            <lane id="gneE10_0" queueing_time="10.00" queueing_length="6.00"
                queueing_length_experimental="6.00" />
            <lane id="gneE14_0" queueing_time="9.00" queueing_length="6.00"
                queueing_length_experimental="6.00" />
        </lanes>
    </data>
    <data timestep="29.00">
        <lanes>
            <lane id="gneE10_0" queueing_time="11.00" queueing_length="6.00"
                queueing_length_experimental="6.00" />
            <lane id="gneE14_0" queueing_time="10.00" queueing_length="6.00"
                queueing_length_experimental="6.00" />
        </lanes>
    </data>
    <data timestep="30.00">
        <lanes>
            <lane id="gneE10_0" queueing_time="12.00" queueing_length="6.00"
                queueing_length_experimental="6.00" />
            <lane id="gneE14_0" queueing_time="11.00" queueing_length="6.00"
                queueing_length_experimental="6.00" />
        </lanes>
    </data>
    <data timestep="31.00">
        <lanes>
            <lane id="gneE10_0" queueing_time="13.00" queueing_length="6.00"
                queueing_length_experimental="6.00" />
            <lane id="gneE14_0" queueing_time="12.00" queueing_length="6.00"
                queueing_length_experimental="6.00" />
        </lanes>
    </data>
    <data timestep="32.00">
        <lanes>
            <lane id="gneE10_0" queueing_time="14.00" queueing_length="6.00"
                queueing_length_experimental="6.00" />
            <lane id="gneE14_0" queueing_time="13.00" queueing_length="6.00"
                queueing_length_experimental="6.00" />
        </lanes>
    </data>
    <data timestep="33.00">
        <lanes>
            <lane id="gneE10_0" queueing_time="15.00" queueing_length="6.00"
                queueing_length_experimental="6.00" />
            <lane id="gneE14_0" queueing_time="14.00" queueing_length="6.00"
                queueing_length_experimental="6.00" />
        </lanes>
    </data>
    <data timestep="34.00">
        <lanes>
            <lane id="gneE10_0" queueing_time="16.00" queueing_length="6.00"
                queueing_length_experimental="6.00" />
            <lane id="gneE14_0" queueing_time="15.00" queueing_length="6.00"
                queueing_length_experimental="6.00" />
        </lanes>
    </data>
    <data timestep="35.00">
        <lanes>
            <lane id="gneE10_0" queueing_time="17.00" queueing_length="6.00"
                queueing_length_experimental="6.00" />
            <lane id="gneE14_0" queueing_time="16.00" queueing_length="6.00"
                queueing_length_experimental="6.00" />
        </lanes>
    </data>
    <data timestep="36.00">
        <lanes>
            <lane id="gneE10_0" queueing_time="18.00" queueing_length="6.00"
                queueing_length_experimental="6.00" />
            <lane id="gneE14_0" queueing_time="17.00" queueing_length="6.00"
                queueing_length_experimental="6.00" />
            <lane id="gneE14_1" queueing_time="0.00" queueing_length="0.00"
                queueing_length_experimental="6.02" />
        </lanes>
    </data>
    <data timestep="37.00">
        <lanes>
            <lane id="gneE10_0" queueing_time="19.00" queueing_length="6.00"
                queueing_length_experimental="6.00" />
            <lane id="gneE14_0" queueing_time="18.00" queueing_length="6.00"
                queueing_length_experimental="6.00" />
            <lane id="gneE14_1" queueing_time="1.00" queueing_length="6.00"
                queueing_length_experimental="6.00" />
        </lanes>
    </data>
    <data timestep="38.00">
        <lanes>
            <lane id="gneE10_0" queueing_time="20.00" queueing_length="6.00"
                queueing_length_experimental="13.71" />
            <lane id="gneE14_0" queueing_time="19.00" queueing_length="6.00"
                queueing_length_experimental="6.00" />
            <lane id="gneE14_1" queueing_time="2.00" queueing_length="6.00"
                queueing_length_experimental="6.00" />
        </lanes>
    </data>
    <data timestep="39.00">
        <lanes>
            <lane id="gneE10_0" queueing_time="21.00" queueing_length="6.00"
                queueing_length_experimental="13.59" />
            <lane id="gneE14_0" queueing_time="20.00" queueing_length="6.00"
                queueing_length_experimental="6.00" />
            <lane id="gneE14_1" queueing_time="3.00" queueing_length="6.00"
                queueing_length_experimental="6.00" />
        </lanes>
    </data>
    <data timestep="40.00">
        <lanes>
            <lane id="gneE10_0" queueing_time="22.00" queueing_length="13.54"
                queueing_length_experimental="13.54" />
            <lane id="gneE14_0" queueing_time="21.00" queueing_length="6.00"
                queueing_length_experimental="6.00" />
            <lane id="gneE14_1" queueing_time="4.00" queueing_length="6.00"
                queueing_length_experimental="6.00" />
        </lanes>
    </data>
    <data timestep="41.00">
        <lanes>
            <lane id="gneE10_0" queueing_time="23.00" queueing_length="13.51"
                queueing_length_experimental="13.51" />
            <lane id="gneE14_0" queueing_time="22.00" queueing_length="6.00"
                queueing_length_experimental="6.00" />
            <lane id="gneE14_1" queueing_time="5.00" queueing_length="6.00"
                queueing_length_experimental="6.00" />
        </lanes>
    </data>
    <data timestep="42.00">
        <lanes>
            <lane id="gneE10_0" queueing_time="24.00" queueing_length="13.51"
                queueing_length_experimental="13.51" />
            <lane id="gneE14_0" queueing_time="23.00" queueing_length="6.00"
                queueing_length_experimental="6.00" />
            <lane id="gneE14_1" queueing_time="6.00" queueing_length="6.00"
                queueing_length_experimental="6.00" />
        </lanes>
    </data>
    <data timestep="43.00">
        <lanes>
            <lane id="gneE10_0" queueing_time="25.00" queueing_length="13.50"
                queueing_length_experimental="13.50" />
            <lane id="gneE14_0" queueing_time="24.00" queueing_length="6.00"
                queueing_length_experimental="6.00" />
            <lane id="gneE14_1" queueing_time="7.00" queueing_length="6.00"
                queueing_length_experimental="6.00" />
        </lanes>
    </data>
    <data timestep="44.00">
        <lanes>
            <lane id="gneE10_0" queueing_time="26.00" queueing_length="13.50"
                queueing_length_experimental="13.50" />
            <lane id="gneE14_0" queueing_time="25.00" queueing_length="6.00"
                queueing_length_experimental="6.00" />
            <lane id="gneE14_1" queueing_time="8.00" queueing_length="6.00"
                queueing_length_experimental="6.00" />
        </lanes>
    </data>
    <data timestep="45.00">
        <lanes>
            <lane id="gneE10_0" queueing_time="6.00" queueing_length="13.50"
                queueing_length_experimental="13.50" />
        </lanes>
    </data>
    <data timestep="46.00">
        <lanes />
    </data>
    <data timestep="47.00">
        <lanes />
    </data>
    <data timestep="48.00">
        <lanes />
    </data>
    <data timestep="49.00">
        <lanes />
    </data>
    <data timestep="50.00">
        <lanes />
    </data>
    <data timestep="51.00">
        <lanes />
    </data>
    <data timestep="52.00">
        <lanes />
    </data>
    <data timestep="53.00">
        <lanes />
    </data>
    <data timestep="54.00">
        <lanes />
    </data>
    <data timestep="55.00">
        <lanes>
            <lane id="gneE12_0" queueing_time="0.00" queueing_length="0.00"
                queueing_length_experimental="6.29" />
            <lane id="gneE16_0" queueing_time="0.00" queueing_length="0.00"
                queueing_length_experimental="6.02" />
        </lanes>
    </data>
    <data timestep="56.00">
        <lanes>
            <lane id="gneE12_0" queueing_time="0.00" queueing_length="0.00"
                queueing_length_experimental="6.08" />
            <lane id="gneE16_0" queueing_time="1.00" queueing_length="6.01"
                queueing_length_experimental="6.01" />
        </lanes>
    </data>
    <data timestep="57.00">
        <lanes>
            <lane id="gneE12_0" queueing_time="1.00" queueing_length="6.01"
                queueing_length_experimental="6.01" />
            <lane id="gneE16_0" queueing_time="2.00" queueing_length="6.00"
                queueing_length_experimental="6.00" />
        </lanes>
    </data>
    <data timestep="58.00">
        <lanes>
            <lane id="gneE12_0" queueing_time="2.00" queueing_length="6.00"
                queueing_length_experimental="6.00" />
            <lane id="gneE16_0" queueing_time="3.00" queueing_length="6.00"
                queueing_length_experimental="6.00" />
        </lanes>
    </data>
    <data timestep="59.00">
        <lanes>
            <lane id="gneE12_0" queueing_time="3.00" queueing_length="6.00"
                queueing_length_experimental="6.00" />
            <lane id="gneE16_0" queueing_time="4.00" queueing_length="6.00"
                queueing_length_experimental="6.00" />
        </lanes>
    </data>
    <data timestep="60.00">
        <lanes>
            <lane id="gneE12_0" queueing_time="4.00" queueing_length="6.00"
                queueing_length_experimental="6.00" />
            <lane id="gneE16_0" queueing_time="5.00" queueing_length="6.00"
                queueing_length_experimental="6.00" />
        </lanes>
    </data>
    <data timestep="61.00">
        <lanes>
            <lane id="gneE12_0" queueing_time="5.00" queueing_length="6.00"
                queueing_length_experimental="6.00" />
            <lane id="gneE16_0" queueing_time="6.00" queueing_length="6.00"
                queueing_length_experimental="6.00" />
        </lanes>
    </data>
    <data timestep="62.00">
        <lanes>
            <lane id="gneE12_0" queueing_time="6.00" queueing_length="6.00"
                queueing_length_experimental="6.00" />
            <lane id="gneE16_0" queueing_time="7.00" queueing_length="6.00"
                queueing_length_experimental="6.00" />
        </lanes>
    </data>
    <data timestep="63.00">
        <lanes>
            <lane id="gneE12_0" queueing_time="7.00" queueing_length="6.00"
                queueing_length_experimental="6.00" />
            <lane id="gneE16_0" queueing_time="8.00" queueing_length="6.00"
                queueing_length_experimental="6.00" />
        </lanes>
    </data>
    <data timestep="64.00">
        <lanes>
            <lane id="gneE12_0" queueing_time="8.00" queueing_length="6.00"
                queueing_length_experimental="6.00" />
            <lane id="gneE16_0" queueing_time="9.00" queueing_length="6.00"
                queueing_length_experimental="6.00" />
        </lanes>
    </data>
    <data timestep="65.00">
        <lanes>
            <lane id="gneE12_0" queueing_time="9.00" queueing_length="6.00"
                queueing_length_experimental="6.00" />
            <lane id="gneE16_0" queueing_time="10.00" queueing_length="6.00"
                queueing_length_experimental="6.00" />
        </lanes>
    </data>
    <data timestep="66.00">
        <lanes>
            <lane id="gneE12_0" queueing_time="10.00" queueing_length="6.00"
                queueing_length_experimental="6.00" />
            <lane id="gneE16_0" queueing_time="11.00" queueing_length="6.00"
                queueing_length_experimental="6.00" />
        </lanes>
    </data>
    <data timestep="67.00">
        <lanes>
            <lane id="gneE12_0" queueing_time="11.00" queueing_length="6.00"
                queueing_length_experimental="6.00" />
            <lane id="gneE16_0" queueing_time="12.00" queueing_length="6.00"
                queueing_length_experimental="6.00" />
        </lanes>
    </data>
    <data timestep="68.00">
        <lanes>
            <lane id="gneE12_0" queueing_time="12.00" queueing_length="6.00"
                queueing_length_experimental="6.00" />
            <lane id="gneE16_0" queueing_time="13.00" queueing_length="6.00"
                queueing_length_experimental="6.00" />
        </lanes>
    </data>
    <data timestep="69.00">
        <lanes>
            <lane id="gneE12_0" queueing_time="13.00" queueing_length="6.00"
                queueing_length_experimental="6.00" />
            <lane id="gneE16_0" queueing_time="14.00" queueing_length="6.00"
                queueing_length_experimental="6.00" />
        </lanes>
    </data>
    <data timestep="70.00">
        <lanes>
            <lane id="gneE12_0" queueing_time="14.00" queueing_length="6.00"
                queueing_length_experimental="6.00" />
            <lane id="gneE16_0" queueing_time="15.00" queueing_length="6.00"
                queueing_length_experimental="6.00" />
        </lanes>
    </data>
    <data timestep="71.00">
        <lanes>
            <lane id="gneE12_0" queueing_time="15.00" queueing_length="6.00"
                queueing_length_experimental="6.00" />
            <lane id="gneE16_0" queueing_time="16.00" queueing_length="6.00"
                queueing_length_experimental="6.00" />
        </lanes>
    </data>
    <data timestep="72.00">
        <lanes>
            <lane id="gneE12_0" queueing_time="16.00" queueing_length="6.00"
                queueing_length_experimental="6.00" />
            <lane id="gneE12_1" queueing_time="0.00" queueing_length="0.00"
                queueing_length_experimental="6.40" />
            <lane id="gneE16_0" queueing_time="17.00" queueing_length="6.00"
                queueing_length_experimental="6.00" />
        </lanes>
    </data>
    <data timestep="73.00">
        <lanes>
            <lane id="gneE12_0" queueing_time="17.00" queueing_length="6.00"
                queueing_length_experimental="6.00" />
            <lane id="gneE12_1" queueing_time="0.00" queueing_length="0.00"
                queueing_length_experimental="6.09" />
            <lane id="gneE16_0" queueing_time="18.00" queueing_length="6.00"
                queueing_length_experimental="13.73" />
        </lanes>
    </data>
    <data timestep="74.00">
        <lanes>
            <lane id="gneE12_0" queueing_time="18.00" queueing_length="6.00"
                queueing_length_experimental="6.00" />
            <lane id="gneE12_1" queueing_time="1.00" queueing_length="6.04"
                queueing_length_experimental="6.04" />
            <lane id="gneE16_0" queueing_time="19.00" queueing_length="6.00"
                queueing_length_experimental="13.60" />
        </lanes>
    </data>
    <data timestep="75.00">
        <lanes>
            <lane id="gneE12_0" queueing_time="19.00" queueing_length="6.00"
                queueing_length_experimental="6.00" />
            <lane id="gneE12_1" queueing_time="2.00" queueing_length="6.02"
                queueing_length_experimental="6.02" />
            <lane id="gneE16_0" queueing_time="20.00" queueing_length="13.52"
                queueing_length_experimental="13.52" />
        </lanes>
    </data>
    <data timestep="76.00">
        <lanes>
            <lane id="gneE12_0" queueing_time="20.00" queueing_length="6.00"
                queueing_length_experimental="6.00" />
            <lane id="gneE12_1" queueing_time="3.00" queueing_length="6.00"
                queueing_length_experimental="6.00" />
            <lane id="gneE16_0" queueing_time="21.00" queueing_length="13.51"
                queueing_length_experimental="13.51" />
        </lanes>
    </data>
    <data timestep="77.00">
        <lanes>
            <lane id="gneE12_0" queueing_time="21.00" queueing_length="6.00"
                queueing_length_experimental="6.00" />
            <lane id="gneE12_1" queueing_time="4.00" queueing_length="6.00"
                queueing_length_experimental="6.00" />
            <lane id="gneE16_0" queueing_time="22.00" queueing_length="13.50"
                queueing_length_experimental="13.50" />
        </lanes>
    </data>
    <data timestep="78.00">
        <lanes>
            <lane id="gneE12_0" queueing_time="22.00" queueing_length="6.00"
                queueing_length_experimental="6.00" />
            <lane id="gneE12_1" queueing_time="5.00" queueing_length="6.00"
                queueing_length_experimental="6.00" />
            <lane id="gneE16_0" queueing_time="23.00" queueing_length="13.50"
                queueing_length_experimental="13.50" />
        </lanes>
    </data>
    <data timestep="79.00">
        <lanes>
            <lane id="gneE12_0" queueing_time="23.00" queueing_length="6.00"
                queueing_length_experimental="6.00" />
            <lane id="gneE12_1" queueing_time="6.00" queueing_length="6.00"
                queueing_length_experimental="6.00" />
            <lane id="gneE16_0" queueing_time="24.00" queueing_length="13.50"
                queueing_length_experimental="13.50" />
        </lanes>
    </data>
    <data timestep="80.00">
        <lanes>
            <lane id="gneE12_0" queueing_time="24.00" queueing_length="6.00"
                queueing_length_experimental="6.00" />
            <lane id="gneE12_1" queueing_time="7.00" queueing_length="6.00"
                queueing_length_experimental="6.00" />
            <lane id="gneE16_0" queueing_time="25.00" queueing_length="13.50"
                queueing_length_experimental="13.50" />
        </lanes>
    </data>
    <data timestep="81.00">
        <lanes>
            <lane id="gneE12_0" queueing_time="25.00" queueing_length="6.00"
                queueing_length_experimental="6.00" />
            <lane id="gneE12_1" queueing_time="8.00" queueing_length="6.00"
                queueing_length_experimental="6.00" />
            <lane id="gneE16_0" queueing_time="26.00" queueing_length="13.50"
                queueing_length_experimental="13.50" />
        </lanes>
    </data>
    <data timestep="82.00">
        <lanes>
            <lane id="gneE12_0" queueing_time="26.00" queueing_length="6.00"
                queueing_length_experimental="6.00" />
            <lane id="gneE12_1" queueing_time="9.00" queueing_length="6.00"
                queueing_length_experimental="6.00" />
            <lane id="gneE16_0" queueing_time="27.00" queueing_length="13.50"
                queueing_length_experimental="13.50" />
        </lanes>
    </data>
    <data timestep="83.00">
        <lanes>
            <lane id="gneE12_0" queueing_time="27.00" queueing_length="6.00"
                queueing_length_experimental="6.00" />
            <lane id="gneE12_1" queueing_time="10.00" queueing_length="6.00"
                queueing_length_experimental="6.00" />
            <lane id="gneE16_0" queueing_time="28.00" queueing_length="13.50"
                queueing_length_experimental="13.50" />
        </lanes>
    </data>
    <data timestep="84.00">
        <lanes>
            <lane id="gneE12_0" queueing_time="28.00" queueing_length="6.00"
                queueing_length_experimental="6.00" />
            <lane id="gneE12_1" queueing_time="11.00" queueing_length="6.00"
                queueing_length_experimental="6.00" />
            <lane id="gneE16_0" queueing_time="29.00" queueing_length="13.50"
                queueing_length_experimental="13.50" />
        </lanes>
    </data>
    <data timestep="85.00">
        <lanes>
            <lane id="gneE12_0" queueing_time="29.00" queueing_length="6.00"
                queueing_length_experimental="6.00" />
            <lane id="gneE12_1" queueing_time="12.00" queueing_length="6.00"
                queueing_length_experimental="6.00" />
            <lane id="gneE16_0" queueing_time="30.00" queueing_length="13.50"
                queueing_length_experimental="13.50" />
        </lanes>
    </data>
    <data timestep="86.00">
        <lanes>
            <lane id="gneE12_0" queueing_time="30.00" queueing_length="6.00"
                queueing_length_experimental="6.00" />
            <lane id="gneE12_1" queueing_time="13.00" queueing_length="6.00"
                queueing_length_experimental="6.00" />
            <lane id="gneE16_0" queueing_time="31.00" queueing_length="13.50"
                queueing_length_experimental="13.50" />
        </lanes>
    </data>
    <data timestep="87.00">
        <lanes>
            <lane id="gneE12_0" queueing_time="31.00" queueing_length="6.00"
                queueing_length_experimental="6.00" />
            <lane id="gneE12_1" queueing_time="14.00" queueing_length="6.00"
                queueing_length_experimental="6.00" />
            <lane id="gneE16_0" queueing_time="32.00" queueing_length="13.50"
                queueing_length_experimental="13.50" />
        </lanes>
    </data>
    <data timestep="88.00">
        <lanes>
            <lane id="gneE12_0" queueing_time="32.00" queueing_length="6.00"
                queueing_length_experimental="6.00" />
            <lane id="gneE12_1" queueing_time="15.00" queueing_length="6.00"
                queueing_length_experimental="6.00" />
            <lane id="gneE16_0" queueing_time="33.00" queueing_length="13.50"
                queueing_length_experimental="13.50" />
        </lanes>
    </data>
    <data timestep="89.00">
        <lanes>
            <lane id="gneE12_0" queueing_time="33.00" queueing_length="6.00"
                queueing_length_experimental="6.00" />
            <lane id="gneE12_1" queueing_time="16.00" queueing_length="6.00"
                queueing_length_experimental="6.00" />
            <lane id="gneE16_0" queueing_time="34.00" queueing_length="13.50"
                queueing_length_experimental="13.50" />
            <lane id="gneE16_1" queueing_time="0.00" queueing_length="0.00"
                queueing_length_experimental="6.18" />
        </lanes>
    </data>
    <data timestep="90.00">
        <lanes>
            <lane id="gneE16_0" queueing_time="16.00" queueing_length="13.50"
                queueing_length_experimental="13.50" />
        </lanes>
    </data>
    <data timestep="91.00">
        <lanes>
            <lane id="gneE10_2" queueing_time="0.00" queueing_length="0.00"
                queueing_length_experimental="6.06" />
        </lanes>
    </data>
    <data timestep="92.00">
        <lanes>
            <lane id="gneE10_2" queueing_time="1.00" queueing_length="6.02"
                queueing_length_experimental="6.02" />
            <lane id="gneE14_0" queueing_time="1.00" queueing_length="6.03"
                queueing_length_experimental="6.03" />
        </lanes>
    </data>
    <data timestep="93.00">
        <lanes>
            <lane id="gneE10_2" queueing_time="2.00" queueing_length="6.00"
                queueing_length_experimental="6.00" />
            <lane id="gneE14_0" queueing_time="2.00" queueing_length="6.01"
                queueing_length_experimental="6.01" />
        </lanes>
    </data>
    <data timestep="94.00">
        <lanes>
            <lane id="gneE10_2" queueing_time="3.00" queueing_length="6.00"
                queueing_length_experimental="6.00" />
            <lane id="gneE14_0" queueing_time="3.00" queueing_length="6.00"
                queueing_length_experimental="6.00" />
        </lanes>
    </data>
    <data timestep="95.00">
        <lanes>
            <lane id="gneE10_2" queueing_time="4.00" queueing_length="6.00"
                queueing_length_experimental="6.00" />
            <lane id="gneE14_0" queueing_time="4.00" queueing_length="6.00"
                queueing_length_experimental="6.00" />
        </lanes>
    </data>
    <data timestep="96.00">
        <lanes>
            <lane id="gneE10_2" queueing_time="5.00" queueing_length="6.00"
                queueing_length_experimental="6.00" />
            <lane id="gneE14_0" queueing_time="5.00" queueing_length="6.00"
                queueing_length_experimental="6.00" />
        </lanes>
    </data>
    <data timestep="97.00">
        <lanes>
            <lane id="gneE10_2" queueing_time="6.00" queueing_length="6.00"
                queueing_length_experimental="6.00" />
            <lane id="gneE14_0" queueing_time="6.00" queueing_length="6.00"
                queueing_length_experimental="6.00" />
        </lanes>
    </data>
    <data timestep="98.00">
        <lanes>
            <lane id="gneE10_2" queueing_time="7.00" queueing_length="6.00"
                queueing_length_experimental="6.00" />
            <lane id="gneE14_0" queueing_time="7.00" queueing_length="6.00"
                queueing_length_experimental="6.00" />
        </lanes>
    </data>
    <data timestep="99.00">
        <lanes>
            <lane id="gneE10_2" queueing_time="8.00" queueing_length="6.00"
                queueing_length_experimental="6.00" />
            <lane id="gneE14_0" queueing_time="8.00" queueing_length="6.00"